M 10.00000 0 (5.00, 5.00, 0.00), (250.00, 250.00), 3.00
s 10.000000000 _0_ AGT  --- 0 tcp 40 [0 0 0 0] ------- [0:0 1:0 32 0] [0 0] 0 0
r 10.000000000 _0_ RTR  --- 0 tcp 40 [0 0 0 0] ------- [0:0 1:0 32 0] [0 0] 0 0
s 10.003959672 _0_ RTR  --- 1 DSR 32 [0 0 0 0] ------- [0:255 1:255 32 0] 1 [1 1] [0 1 0 0->0] [0 0 0 0->0]
s 10.070149914 _0_ RTR  --- 3 DSR 32 [0 0 0 0] ------- [0:255 1:255 32 0] 1 [1 2] [0 2 0 0->16] [0 0 0 0->0]
s 12.012724447 _0_ RTR  --- 46 DSR 32 [0 0 0 0] ------- [0:255 1:255 32 0] 1 [1 3] [0 3 0 0->0] [0 0 0 0->0]
s 12.044077224 _0_ RTR  --- 47 DSR 32 [0 0 0 0] ------- [0:255 1:255 32 0] 1 [1 4] [0 4 0 0->16] [0 0 0 0->0]
s 13.000000000 _0_ AGT  --- 68 tcp 40 [0 0 0 0] ------- [0:0 1:0 32 0] [0 0] 0 0
r 13.000000000 _0_ RTR  --- 68 tcp 40 [0 0 0 0] ------- [0:0 1:0 32 0] [0 0] 0 0
M 15.00000 1 (490.00, 285.00, 0.00), (45.00, 285.00), 5.00
s 19.000000000 _0_ AGT  --- 338 tcp 40 [0 0 0 0] ------- [0:0 1:0 32 0] [0 0] 0 0
r 19.000000000 _0_ RTR  --- 338 tcp 40 [0 0 0 0] ------- [0:0 1:0 32 0] [0 0] 0 0
s 20.015401502 _0_ RTR  --- 403 DSR 32 [0 0 0 0] ------- [0:255 1:255 32 0] 1 [1 5] [0 5 0 0->0] [0 0 0 0->0]
r 20.016342325 _2_ RTR  --- 403 DSR 32 [0 ffffffff 0 800] ------- [0:255 1:255 32 0] 1 [1 5] [0 5 0 0->0] [0 0 0 0->0]
s 20.058911704 _0_ RTR  --- 406 DSR 32 [0 0 0 0] ------- [0:255 1:255 32 0] 1 [1 6] [0 6 0 0->16] [0 0 0 0->0]
r 20.059852527 _2_ RTR  --- 406 DSR 32 [0 ffffffff 0 800] ------- [0:255 1:255 32 0] 1 [1 6] [0 6 0 0->16] [0 0 0 0->0]
f 20.065374324 _2_ RTR  --- 406 DSR 48 [0 ffffffff 0 800] ------- [0:255 1:255 32 0] 2 [1 6] [0 6 0 0->16] [0 0 0 0->0]
r 20.066643147 _0_ RTR  --- 406 DSR 48 [0 ffffffff 2 800] ------- [0:255 1:255 32 0] 2 [1 6] [0 6 0 0->16] [0 0 0 0->0]
s 30.037322653 _0_ RTR  --- 1084 DSR 32 [0 0 0 0] ------- [0:255 1:255 32 0] 1 [1 7] [0 7 0 0->0] [0 0 0 0->0]
r 30.038143380 _2_ RTR  --- 1084 DSR 32 [0 ffffffff 0 800] ------- [0:255 1:255 32 0] 1 [1 7] [0 7 0 0->0] [0 0 0 0->0]
s 30.076359742 _0_ RTR  --- 1087 DSR 32 [0 0 0 0] ------- [0:255 1:255 32 0] 1 [1 8] [0 8 0 0->16] [0 0 0 0->0]
r 30.077300469 _2_ RTR  --- 1087 DSR 32 [0 ffffffff 0 800] ------- [0:255 1:255 32 0] 1 [1 8] [0 8 0 0->16] [0 0 0 0->0]
f 30.079662734 _2_ RTR  --- 1087 DSR 48 [0 ffffffff 0 800] ------- [0:255 1:255 32 0] 2 [1 8] [0 8 0 0->16] [0 0 0 0->0]
r 30.080871461 _0_ RTR  --- 1087 DSR 48 [0 ffffffff 2 800] ------- [0:255 1:255 32 0] 2 [1 8] [0 8 0 0->16] [0 0 0 0->0]
s 31.000000000 _0_ AGT  --- 1153 tcp 40 [0 0 0 0] ------- [0:0 1:0 32 0] [0 0] 0 0
r 31.000000000 _0_ RTR  --- 1153 tcp 40 [0 0 0 0] ------- [0:0 1:0 32 0] [0 0] 0 0
Ssb 40.01600 _0_ dropped 0 -> 1
D 40.016001148 _0_ RTR TOUT 0 tcp 60 [0 0 0 0] ------- [0:0 1:0 32 0] [0 0] 0 0
s 40.069681165 _0_ RTR  --- 1966 DSR 32 [0 0 0 0] ------- [0:255 1:255 32 0] 1 [1 9] [0 9 0 0->0] [0 0 0 0->0]
r 40.070821797 _2_ RTR  --- 1966 DSR 32 [0 ffffffff 0 800] ------- [0:255 1:255 32 0] 1 [1 9] [0 9 0 0->0] [0 0 0 0->0]
s 40.114176203 _0_ RTR  --- 1969 DSR 32 [0 0 0 0] ------- [0:255 1:255 32 0] 1 [1 10] [0 10 0 0->16] [0 0 0 0->0]
r 40.115016835 _2_ RTR  --- 1969 DSR 32 [0 ffffffff 0 800] ------- [0:255 1:255 32 0] 1 [1 10] [0 10 0 0->16] [0 0 0 0->0]
f 40.118512963 _2_ RTR  --- 1969 DSR 48 [0 ffffffff 0 800] ------- [0:255 1:255 32 0] 2 [1 10] [0 10 0 0->16] [0 0 0 0->0]
r 40.119961595 _0_ RTR  --- 1969 DSR 48 [0 ffffffff 2 800] ------- [0:255 1:255 32 0] 2 [1 10] [0 10 0 0->16] [0 0 0 0->0]
r 40.119961694 _1_ RTR  --- 1969 DSR 48 [0 ffffffff 2 800] ------- [0:255 1:255 32 0] 2 [1 10] [0 10 0 0->16] [0 0 0 0->0]
s 40.120777538 _1_ RTR  --- 1972 DSR 52 [0 0 0 0] ------- [1:255 0:255 254 2] 3 [0 10] [1 10 3 0->1] [0 0 0 0->0]
r 40.125609650 _2_ RTR  --- 1972 DSR 52 [13a 2 1 800] ------- [1:255 0:255 254 2] 3 [0 10] [1 10 3 0->1] [0 0 0 0->0]
f 40.125609650 _2_ RTR  --- 1972 DSR 52 [13a 2 1 800] ------- [1:255 0:255 253 0] 3 [0 10] [1 10 3 0->1] [0 0 0 0->0]
r 40.130605067 _0_ RTR  --- 1972 DSR 52 [13a 0 2 800] ------- [1:255 0:255 253 0] 3 [0 10] [1 10 3 0->1] [0 0 0 0->0]
SFESTs 40.130605067 _0_ 68 [0 -> 1] 1(1) to 2 [0 |2 1 ]
SFESTs 40.130605067 _0_ 338 [0 -> 1] 1(1) to 2 [0 |2 1 ]
SFESTs 40.130605067 _0_ 1153 [0 -> 1] 1(1) to 2 [0 |2 1 ]
s 40.130605067 _0_ RTR  --- 68 tcp 80 [0 0 0 0] ------- [0:0 1:0 32 2] [0 0] 0 0
r 40.132930961 _2_ RTR  --- 68 tcp 80 [13a 2 0 800] ------- [0:0 1:0 32 2] [0 0] 1 0
f 40.132930961 _2_ RTR  --- 68 tcp 80 [13a 2 0 800] ------- [0:0 1:0 31 1] [0 0] 1 0
r 40.135097151 _1_ RTR  --- 68 tcp 80 [13a 1 2 800] ------- [0:0 1:0 31 1] [0 0] 2 0
r 40.135097151 _1_ AGT  --- 68 tcp 40 [13a 1 2 800] ------- [0:0 1:0 31 1] [0 0] 2 0
s 40.135097151 _1_ AGT  --- 1973 ack 40 [0 0 0 0] ------- [1:0 0:0 32 0] [0 0] 0 0
r 40.135097151 _1_ RTR  --- 1973 ack 40 [0 0 0 0] ------- [1:0 0:0 32 0] [0 0] 0 0
SFESTs 40.135097151 _1_ 1973 [1 -> 0] 1(1) to 2 [1 |2 0 ]
s 40.135097151 _1_ RTR  --- 1973 ack 80 [0 0 0 0] ------- [1:0 0:0 32 2] [0 0] 0 0
r 40.137643341 _2_ RTR  --- 1973 ack 80 [13a 2 1 800] ------- [1:0 0:0 32 2] [0 0] 1 0
f 40.137643341 _2_ RTR  --- 1973 ack 80 [13a 2 1 800] ------- [1:0 0:0 31 0] [0 0] 1 0
r 40.140249234 _0_ RTR  --- 1973 ack 80 [13a 0 2 800] ------- [1:0 0:0 31 0] [0 0] 2 0
r 40.140249234 _0_ AGT  --- 1973 ack 40 [13a 0 2 800] ------- [1:0 0:0 31 0] [0 0] 2 0
s 40.140249234 _0_ AGT  --- 1974 tcp 1040 [0 0 0 0] ------- [0:0 1:0 32 0] [1 0] 0 0
r 40.140249234 _0_ RTR  --- 1974 tcp 1040 [0 0 0 0] ------- [0:0 1:0 32 0] [1 0] 0 0
SFs 40.140249234 _0_ 1974 [0 -> 1] 1(0) to 2 
s 40.140249234 _0_ RTR  --- 1974 tcp 1060 [0 0 0 0] ------- [0:0 1:0 32 2] [1 0] 0 0
r 40.150515126 _2_ RTR  --- 1974 tcp 1060 [13a 2 0 800] ------- [0:0 1:0 32 2] [1 0] 1 0
SFf 40.150515126 _2_ 1974 [0 -> 1] 1 to 1
f 40.150515126 _2_ RTR  --- 1974 tcp 1060 [13a 2 0 800] ------- [0:0 1:0 31 1] [1 0] 1 0
r 40.160501316 _1_ RTR  --- 1974 tcp 1060 [13a 1 2 800] ------- [0:0 1:0 31 1] [1 0] 2 0
r 40.160501316 _1_ AGT  --- 1974 tcp 1040 [13a 1 2 800] ------- [0:0 1:0 31 1] [1 0] 2 0
s 40.160501316 _1_ AGT  --- 1975 ack 40 [0 0 0 0] ------- [1:0 0:0 32 0] [1 0] 0 0
r 40.160501316 _1_ RTR  --- 1975 ack 40 [0 0 0 0] ------- [1:0 0:0 32 0] [1 0] 0 0
SFESTs 40.160501316 _1_ 1975 [1 -> 0] 1(1) to 2 [1 |2 0 ]
s 40.160501316 _1_ RTR  --- 1975 ack 80 [0 0 0 0] ------- [1:0 0:0 32 2] [1 0] 0 0
s 40.160605067 _0_ RTR  --- 338 tcp 80 [0 0 0 0] ------- [0:0 1:0 32 2] [0 0] 0 0
r 40.163167504 _2_ RTR  --- 1975 ack 80 [13a 2 1 800] ------- [1:0 0:0 32 2] [1 0] 1 0
f 40.163167504 _2_ RTR  --- 1975 ack 80 [13a 2 1 800] ------- [1:0 0:0 31 0] [1 0] 1 0
r 40.165373397 _0_ RTR  --- 1975 ack 80 [13a 0 2 800] ------- [1:0 0:0 31 0] [1 0] 2 0
r 40.165373397 _0_ AGT  --- 1975 ack 40 [13a 0 2 800] ------- [1:0 0:0 31 0] [1 0] 2 0
s 40.165373397 _0_ AGT  --- 1976 tcp 1040 [0 0 0 0] ------- [0:0 1:0 32 0] [2 0] 0 0
r 40.165373397 _0_ RTR  --- 1976 tcp 1040 [0 0 0 0] ------- [0:0 1:0 32 0] [2 0] 0 0
SFs 40.165373397 _0_ 1976 [0 -> 1] 1(0) to 2 
s 40.165373397 _0_ AGT  --- 1977 tcp 1040 [0 0 0 0] ------- [0:0 1:0 32 0] [3 0] 0 0
r 40.165373397 _0_ RTR  --- 1977 tcp 1040 [0 0 0 0] ------- [0:0 1:0 32 0] [3 0] 0 0
SFs 40.165373397 _0_ 1977 [0 -> 1] 1(0) to 2 
s 40.165373397 _0_ RTR  --- 1976 tcp 1060 [0 0 0 0] ------- [0:0 1:0 32 2] [2 0] 0 0
s 40.165373397 _0_ RTR  --- 1977 tcp 1060 [0 0 0 0] ------- [0:0 1:0 32 2] [3 0] 0 0
r 40.167799289 _2_ RTR  --- 338 tcp 80 [13a 2 0 800] ------- [0:0 1:0 32 2] [0 0] 1 0
f 40.167799289 _2_ RTR  --- 338 tcp 80 [13a 2 0 800] ------- [0:0 1:0 31 1] [0 0] 1 0
r 40.170085477 _1_ RTR  --- 338 tcp 80 [13a 1 2 800] ------- [0:0 1:0 31 1] [0 0] 2 0
r 40.170085477 _1_ AGT  --- 338 tcp 40 [13a 1 2 800] ------- [0:0 1:0 31 1] [0 0] 2 0
s 40.170085477 _1_ AGT  --- 1978 ack 40 [0 0 0 0] ------- [1:0 0:0 32 0] [1 0] 0 0
r 40.170085477 _1_ RTR  --- 1978 ack 40 [0 0 0 0] ------- [1:0 0:0 32 0] [1 0] 0 0
SFESTs 40.170085477 _1_ 1978 [1 -> 0] 1(1) to 2 [1 |2 0 ]
s 40.170085477 _1_ RTR  --- 1978 ack 80 [0 0 0 0] ------- [1:0 0:0 32 2] [1 0] 0 0
r 40.172571665 _2_ RTR  --- 1978 ack 80 [13a 2 1 800] ------- [1:0 0:0 32 2] [1 0] 1 0
f 40.172571665 _2_ RTR  --- 1978 ack 80 [13a 2 1 800] ------- [1:0 0:0 31 0] [1 0] 1 0
r 40.174977557 _0_ RTR  --- 1978 ack 80 [13a 0 2 800] ------- [1:0 0:0 31 0] [1 0] 2 0
r 40.174977557 _0_ AGT  --- 1978 ack 40 [13a 0 2 800] ------- [1:0 0:0 31 0] [1 0] 2 0
s 40.174977557 _0_ AGT  --- 1979 tcp 1040 [0 0 0 0] ------- [0:0 1:0 32 0] [4 0] 0 0
r 40.174977557 _0_ RTR  --- 1979 tcp 1040 [0 0 0 0] ------- [0:0 1:0 32 0] [4 0] 0 0
SFs 40.174977557 _0_ 1979 [0 -> 1] 1(0) to 2 
s 40.174977557 _0_ RTR  --- 1979 tcp 1060 [0 0 0 0] ------- [0:0 1:0 32 2] [4 0] 0 0
r 40.185143449 _2_ RTR  --- 1976 tcp 1060 [13a 2 0 800] ------- [0:0 1:0 32 2] [2 0] 1 0
SFf 40.185143449 _2_ 1976 [0 -> 1] 1 to 1
f 40.185143449 _2_ RTR  --- 1976 tcp 1060 [13a 2 0 800] ------- [0:0 1:0 31 1] [2 0] 1 0
s 40.190605067 _0_ RTR  --- 1153 tcp 80 [0 0 0 0] ------- [0:0 1:0 32 2] [0 0] 0 0
r 40.195229972 _2_ RTR  --- 1977 tcp 1060 [13a 2 0 800] ------- [0:0 1:0 32 2] [3 0] 1 0
SFf 40.195229972 _2_ 1977 [0 -> 1] 1 to 1
f 40.195229972 _2_ RTR  --- 1977 tcp 1060 [13a 2 0 800] ------- [0:0 1:0 31 1] [3 0] 1 0
r 40.205376159 _1_ RTR  --- 1976 tcp 1060 [13a 1 2 800] ------- [0:0 1:0 31 1] [2 0] 2 0
r 40.205376159 _1_ AGT  --- 1976 tcp 1040 [13a 1 2 800] ------- [0:0 1:0 31 1] [2 0] 2 0
s 40.205376159 _1_ AGT  --- 1980 ack 40 [0 0 0 0] ------- [1:0 0:0 32 0] [2 0] 0 0
r 40.205376159 _1_ RTR  --- 1980 ack 40 [0 0 0 0] ------- [1:0 0:0 32 0] [2 0] 0 0
SFs 40.205376159 _1_ 1980 [1 -> 0] 1(0) to 2 
s 40.205376159 _1_ RTR  --- 1980 ack 60 [0 0 0 0] ------- [1:0 0:0 32 2] [2 0] 0 0
r 40.207482345 _2_ RTR  --- 1980 ack 60 [13a 2 1 800] ------- [1:0 0:0 32 2] [2 0] 1 0
SFf 40.207482345 _2_ 1980 [1 -> 0] 1 to 0
f 40.207482345 _2_ RTR  --- 1980 ack 60 [13a 2 1 800] ------- [1:0 0:0 31 0] [2 0] 1 0
r 40.217888532 _1_ RTR  --- 1977 tcp 1060 [13a 1 2 800] ------- [0:0 1:0 31 1] [3 0] 2 0
r 40.217888532 _1_ AGT  --- 1977 tcp 1040 [13a 1 2 800] ------- [0:0 1:0 31 1] [3 0] 2 0
s 40.217888532 _1_ AGT  --- 1981 ack 40 [0 0 0 0] ------- [1:0 0:0 32 0] [3 0] 0 0
r 40.217888532 _1_ RTR  --- 1981 ack 40 [0 0 0 0] ------- [1:0 0:0 32 0] [3 0] 0 0
SFs 40.217888532 _1_ 1981 [1 -> 0] 1(0) to 2 
s 40.217888532 _1_ RTR  --- 1981 ack 60 [0 0 0 0] ------- [1:0 0:0 32 2] [3 0] 0 0
r 40.220115151 _0_ RTR  --- 1980 ack 60 [13a 0 2 800] ------- [1:0 0:0 31 0] [2 0] 2 0
r 40.220115151 _0_ AGT  --- 1980 ack 40 [13a 0 2 800] ------- [1:0 0:0 31 0] [2 0] 2 0
r 40.230141042 _2_ RTR  --- 1979 tcp 1060 [13a 2 0 800] ------- [0:0 1:0 32 2] [4 0] 1 0
SFf 40.230141042 _2_ 1979 [0 -> 1] 1 to 1
f 40.230141042 _2_ RTR  --- 1979 tcp 1060 [13a 2 0 800] ------- [0:0 1:0 31 1] [4 0] 1 0
r 40.232387562 _2_ RTR  --- 1153 tcp 80 [13a 2 0 800] ------- [0:0 1:0 32 2] [0 0] 1 0
f 40.232387562 _2_ RTR  --- 1153 tcp 80 [13a 2 0 800] ------- [0:0 1:0 31 1] [0 0] 1 0
r 40.242593747 _1_ RTR  --- 1979 tcp 1060 [13a 1 2 800] ------- [0:0 1:0 31 1] [4 0] 2 0
r 40.242593747 _1_ AGT  --- 1979 tcp 1040 [13a 1 2 800] ------- [0:0 1:0 31 1] [4 0] 2 0
s 40.242593747 _1_ AGT  --- 1982 ack 40 [0 0 0 0] ------- [1:0 0:0 32 0] [4 0] 0 0
r 40.242593747 _1_ RTR  --- 1982 ack 40 [0 0 0 0] ------- [1:0 0:0 32 0] [4 0] 0 0
SFs 40.242593747 _1_ 1982 [1 -> 0] 1(0) to 2 
s 40.242593747 _1_ RTR  --- 1982 ack 60 [0 0 0 0] ------- [1:0 0:0 32 2] [4 0] 0 0
r 40.244619932 _2_ RTR  --- 1981 ack 60 [13a 2 1 800] ------- [1:0 0:0 32 2] [3 0] 1 0
SFf 40.244619932 _2_ 1981 [1 -> 0] 1 to 0
f 40.244619932 _2_ RTR  --- 1981 ack 60 [13a 2 1 800] ------- [1:0 0:0 31 0] [3 0] 1 0
r 40.246906117 _1_ RTR  --- 1153 tcp 80 [13a 1 2 800] ------- [0:0 1:0 31 1] [0 0] 2 0
r 40.246906117 _1_ AGT  --- 1153 tcp 40 [13a 1 2 800] ------- [0:0 1:0 31 1] [0 0] 2 0
s 40.246906117 _1_ AGT  --- 1983 ack 40 [0 0 0 0] ------- [1:0 0:0 32 0] [4 0] 0 0
r 40.246906117 _1_ RTR  --- 1983 ack 40 [0 0 0 0] ------- [1:0 0:0 32 0] [4 0] 0 0
SFs 40.246906117 _1_ 1983 [1 -> 0] 1(0) to 2 
s 40.246906117 _1_ RTR  --- 1983 ack 60 [0 0 0 0] ------- [1:0 0:0 32 2] [4 0] 0 0
r 40.249332301 _2_ RTR  --- 1982 ack 60 [13a 2 1 800] ------- [1:0 0:0 32 2] [4 0] 1 0
SFf 40.249332301 _2_ 1982 [1 -> 0] 1 to 0
f 40.249332301 _2_ RTR  --- 1982 ack 60 [13a 2 1 800] ------- [1:0 0:0 31 0] [4 0] 1 0
r 40.251418191 _0_ RTR  --- 1981 ack 60 [13a 0 2 800] ------- [1:0 0:0 31 0] [3 0] 2 0
r 40.251418191 _0_ AGT  --- 1981 ack 40 [13a 0 2 800] ------- [1:0 0:0 31 0] [3 0] 2 0
s 40.251418191 _0_ AGT  --- 1984 tcp 1040 [0 0 0 0] ------- [0:0 1:0 32 0] [5 0] 0 0
r 40.251418191 _0_ RTR  --- 1984 tcp 1040 [0 0 0 0] ------- [0:0 1:0 32 0] [5 0] 0 0
SFs 40.251418191 _0_ 1984 [0 -> 1] 1(0) to 2 
s 40.251418191 _0_ RTR  --- 1984 tcp 1060 [0 0 0 0] ------- [0:0 1:0 32 2] [5 0] 0 0
r 40.253564711 _0_ RTR  --- 1982 ack 60 [13a 0 2 800] ------- [1:0 0:0 31 0] [4 0] 2 0
r 40.253564711 _0_ AGT  --- 1982 ack 40 [13a 0 2 800] ------- [1:0 0:0 31 0] [4 0] 2 0
s 40.253564711 _0_ AGT  --- 1985 tcp 1040 [0 0 0 0] ------- [0:0 1:0 32 0] [6 0] 0 0
r 40.253564711 _0_ RTR  --- 1985 tcp 1040 [0 0 0 0] ------- [0:0 1:0 32 0] [6 0] 0 0
SFs 40.253564711 _0_ 1985 [0 -> 1] 1(0) to 2 
s 40.253564711 _0_ AGT  --- 1986 tcp 1040 [0 0 0 0] ------- [0:0 1:0 32 0] [7 0] 0 0
r 40.253564711 _0_ RTR  --- 1986 tcp 1040 [0 0 0 0] ------- [0:0 1:0 32 0] [7 0] 0 0
SFs 40.253564711 _0_ 1986 [0 -> 1] 1(0) to 2 
s 40.253564711 _0_ RTR  --- 1985 tcp 1060 [0 0 0 0] ------- [0:0 1:0 32 2] [6 0] 0 0
s 40.253564711 _0_ RTR  --- 1986 tcp 1060 [0 0 0 0] ------- [0:0 1:0 32 2] [7 0] 0 0
r 40.263850601 _2_ RTR  --- 1984 tcp 1060 [13a 2 0 800] ------- [0:0 1:0 32 2] [5 0] 1 0
SFf 40.263850601 _2_ 1984 [0 -> 1] 1 to 1
f 40.263850601 _2_ RTR  --- 1984 tcp 1060 [13a 2 0 800] ------- [0:0 1:0 31 1] [5 0] 1 0
r 40.273896784 _1_ RTR  --- 1984 tcp 1060 [13a 1 2 800] ------- [0:0 1:0 31 1] [5 0] 2 0
r 40.273896784 _1_ AGT  --- 1984 tcp 1040 [13a 1 2 800] ------- [0:0 1:0 31 1] [5 0] 2 0
s 40.273896784 _1_ AGT  --- 1987 ack 40 [0 0 0 0] ------- [1:0 0:0 32 0] [5 0] 0 0
r 40.273896784 _1_ RTR  --- 1987 ack 40 [0 0 0 0] ------- [1:0 0:0 32 0] [5 0] 0 0
SFs 40.273896784 _1_ 1987 [1 -> 0] 1(0) to 2 
s 40.273896784 _1_ RTR  --- 1987 ack 60 [0 0 0 0] ------- [1:0 0:0 32 2] [5 0] 0 0
r 40.276102967 _2_ RTR  --- 1983 ack 60 [13a 2 1 800] ------- [1:0 0:0 32 2] [4 0] 1 0
SFf 40.276102967 _2_ 1983 [1 -> 0] 1 to 0
f 40.276102967 _2_ RTR  --- 1983 ack 60 [13a 2 1 800] ------- [1:0 0:0 31 0] [4 0] 1 0
r 40.286239345 _2_ RTR  --- 1985 tcp 1060 [13a 2 0 800] ------- [0:0 1:0 32 2] [6 0] 1 0
SFf 40.286239345 _2_ 1985 [0 -> 1] 1 to 1
f 40.286239345 _2_ RTR  --- 1985 tcp 1060 [13a 2 0 800] ------- [0:0 1:0 31 1] [6 0] 1 0
r 40.296425864 _2_ RTR  --- 1986 tcp 1060 [13a 2 0 800] ------- [0:0 1:0 32 2] [7 0] 1 0
SFf 40.296425864 _2_ 1986 [0 -> 1] 1 to 1
f 40.296425864 _2_ RTR  --- 1986 tcp 1060 [13a 2 0 800] ------- [0:0 1:0 31 1] [7 0] 1 0
r 40.298471752 _0_ RTR  --- 1983 ack 60 [13a 0 2 800] ------- [1:0 0:0 31 0] [4 0] 2 0
r 40.298471752 _0_ AGT  --- 1983 ack 40 [13a 0 2 800] ------- [1:0 0:0 31 0] [4 0] 2 0
s 40.298471752 _0_ AGT  --- 1988 tcp 1040 [0 0 0 0] ------- [0:0 1:0 32 0] [8 0] 0 0
r 40.298471752 _0_ RTR  --- 1988 tcp 1040 [0 0 0 0] ------- [0:0 1:0 32 0] [8 0] 0 0
SFs 40.298471752 _0_ 1988 [0 -> 1] 1(0) to 2 
s 40.298471752 _0_ RTR  --- 1988 tcp 1060 [0 0 0 0] ------- [0:0 1:0 32 2] [8 0] 0 0
r 40.308478564 _1_ RTR  --- 1985 tcp 1060 [13a 1 2 800] ------- [0:0 1:0 31 1] [6 0] 2 0
r 40.308478564 _1_ AGT  --- 1985 tcp 1040 [13a 1 2 800] ------- [0:0 1:0 31 1] [6 0] 2 0
s 40.308478564 _1_ AGT  --- 1989 ack 40 [0 0 0 0] ------- [1:0 0:0 32 0] [6 0] 0 0
r 40.308478564 _1_ RTR  --- 1989 ack 40 [0 0 0 0] ------- [1:0 0:0 32 0] [6 0] 0 0
SFs 40.308478564 _1_ 1989 [1 -> 0] 1(0) to 2 
s 40.308478564 _1_ RTR  --- 1989 ack 60 [0 0 0 0] ------- [1:0 0:0 32 2] [6 0] 0 0
r 40.318485472 _1_ RTR  --- 1986 tcp 1060 [13a 1 2 800] ------- [0:0 1:0 31 1] [7 0] 2 0
r 40.318485472 _1_ AGT  --- 1986 tcp 1040 [13a 1 2 800] ------- [0:0 1:0 31 1] [7 0] 2 0
s 40.318485472 _1_ AGT  --- 1990 ack 40 [0 0 0 0] ------- [1:0 0:0 32 0] [7 0] 0 0
r 40.318485472 _1_ RTR  --- 1990 ack 40 [0 0 0 0] ------- [1:0 0:0 32 0] [7 0] 0 0
SFs 40.318485472 _1_ 1990 [1 -> 0] 1(0) to 2 
s 40.318485472 _1_ RTR  --- 1990 ack 60 [0 0 0 0] ------- [1:0 0:0 32 2] [7 0] 0 0
r 40.320591653 _2_ RTR  --- 1987 ack 60 [13a 2 1 800] ------- [1:0 0:0 32 2] [5 0] 1 0
SFf 40.320591653 _2_ 1987 [1 -> 0] 1 to 0
f 40.320591653 _2_ RTR  --- 1987 ack 60 [13a 2 1 800] ------- [1:0 0:0 31 0] [5 0] 1 0
r 40.330848030 _2_ RTR  --- 1988 tcp 1060 [13a 2 0 800] ------- [0:0 1:0 32 2] [8 0] 1 0
SFf 40.330848030 _2_ 1988 [0 -> 1] 1 to 1
f 40.330848030 _2_ RTR  --- 1988 tcp 1060 [13a 2 0 800] ------- [0:0 1:0 31 1] [8 0] 1 0
r 40.332913918 _0_ RTR  --- 1987 ack 60 [13a 0 2 800] ------- [1:0 0:0 31 0] [5 0] 2 0
r 40.332913918 _0_ AGT  --- 1987 ack 40 [13a 0 2 800] ------- [1:0 0:0 31 0] [5 0] 2 0
r 40.335425313 _2_ RTR  --- 1989 ack 60 [13a 2 1 800] ------- [1:0 0:0 32 2] [6 0] 1 0
SFf 40.335425313 _2_ 1989 [1 -> 0] 1 to 0
f 40.335425313 _2_ RTR  --- 1989 ack 60 [13a 2 1 800] ------- [1:0 0:0 31 0] [6 0] 1 0
r 40.345471493 _1_ RTR  --- 1988 tcp 1060 [13a 1 2 800] ------- [0:0 1:0 31 1] [8 0] 2 0
r 40.345471493 _1_ AGT  --- 1988 tcp 1040 [13a 1 2 800] ------- [0:0 1:0 31 1] [8 0] 2 0
s 40.345471493 _1_ AGT  --- 1991 ack 40 [0 0 0 0] ------- [1:0 0:0 32 0] [8 0] 0 0
r 40.345471493 _1_ RTR  --- 1991 ack 40 [0 0 0 0] ------- [1:0 0:0 32 0] [8 0] 0 0
SFs 40.345471493 _1_ 1991 [1 -> 0] 1(0) to 2 
s 40.345471493 _1_ RTR  --- 1991 ack 60 [0 0 0 0] ------- [1:0 0:0 32 2] [8 0] 0 0
r 40.347497673 _2_ RTR  --- 1990 ack 60 [13a 2 1 800] ------- [1:0 0:0 32 2] [7 0] 1 0
SFf 40.347497673 _2_ 1990 [1 -> 0] 1 to 0
f 40.347497673 _2_ RTR  --- 1990 ack 60 [13a 2 1 800] ------- [1:0 0:0 31 0] [7 0] 1 0
r 40.349784579 _2_ RTR  --- 1991 ack 60 [13a 2 1 800] ------- [1:0 0:0 32 2] [8 0] 1 0
SFf 40.349784579 _2_ 1991 [1 -> 0] 1 to 0
f 40.349784579 _2_ RTR  --- 1991 ack 60 [13a 2 1 800] ------- [1:0 0:0 31 0] [8 0] 1 0
r 40.351950466 _0_ RTR  --- 1989 ack 60 [13a 0 2 800] ------- [1:0 0:0 31 0] [6 0] 2 0
r 40.351950466 _0_ AGT  --- 1989 ack 40 [13a 0 2 800] ------- [1:0 0:0 31 0] [6 0] 2 0
s 40.351950466 _0_ AGT  --- 1992 tcp 1040 [0 0 0 0] ------- [0:0 1:0 32 0] [9 0] 0 0
r 40.351950466 _0_ RTR  --- 1992 tcp 1040 [0 0 0 0] ------- [0:0 1:0 32 0] [9 0] 0 0
SFs 40.351950466 _0_ 1992 [0 -> 1] 1(0) to 2 
s 40.351950466 _0_ RTR  --- 1992 tcp 1060 [0 0 0 0] ------- [0:0 1:0 32 2] [9 0] 0 0
r 40.361996353 _2_ RTR  --- 1992 tcp 1060 [13a 2 0 800] ------- [0:0 1:0 32 2] [9 0] 1 0
SFf 40.361996353 _2_ 1992 [0 -> 1] 1 to 1
f 40.361996353 _2_ RTR  --- 1992 tcp 1060 [13a 2 0 800] ------- [0:0 1:0 31 1] [9 0] 1 0
r 40.364162240 _0_ RTR  --- 1990 ack 60 [13a 0 2 800] ------- [1:0 0:0 31 0] [7 0] 2 0
r 40.364162240 _0_ AGT  --- 1990 ack 40 [13a 0 2 800] ------- [1:0 0:0 31 0] [7 0] 2 0
s 40.364162240 _0_ AGT  --- 1993 tcp 1040 [0 0 0 0] ------- [0:0 1:0 32 0] [10 0] 0 0
r 40.364162240 _0_ RTR  --- 1993 tcp 1040 [0 0 0 0] ------- [0:0 1:0 32 0] [10 0] 0 0
SFs 40.364162240 _0_ 1993 [0 -> 1] 1(0) to 2 
s 40.364162240 _0_ AGT  --- 1994 tcp 1040 [0 0 0 0] ------- [0:0 1:0 32 0] [11 0] 0 0
r 40.364162240 _0_ RTR  --- 1994 tcp 1040 [0 0 0 0] ------- [0:0 1:0 32 0] [11 0] 0 0
SFs 40.364162240 _0_ 1994 [0 -> 1] 1(0) to 2 
s 40.364162240 _0_ RTR  --- 1993 tcp 1060 [0 0 0 0] ------- [0:0 1:0 32 2] [10 0] 0 0
s 40.364162240 _0_ RTR  --- 1994 tcp 1060 [0 0 0 0] ------- [0:0 1:0 32 2] [11 0] 0 0
r 40.374228126 _2_ RTR  --- 1993 tcp 1060 [13a 2 0 800] ------- [0:0 1:0 32 2] [10 0] 1 0
SFf 40.374228126 _2_ 1993 [0 -> 1] 1 to 1
f 40.374228126 _2_ RTR  --- 1993 tcp 1060 [13a 2 0 800] ------- [0:0 1:0 31 1] [10 0] 1 0
r 40.384594641 _2_ RTR  --- 1994 tcp 1060 [13a 2 0 800] ------- [0:0 1:0 32 2] [11 0] 1 0
SFf 40.384594641 _2_ 1994 [0 -> 1] 1 to 1
f 40.384594641 _2_ RTR  --- 1994 tcp 1060 [13a 2 0 800] ------- [0:0 1:0 31 1] [11 0] 1 0
r 40.386720528 _0_ RTR  --- 1991 ack 60 [13a 0 2 800] ------- [1:0 0:0 31 0] [8 0] 2 0
r 40.386720528 _0_ AGT  --- 1991 ack 40 [13a 0 2 800] ------- [1:0 0:0 31 0] [8 0] 2 0
s 40.386720528 _0_ AGT  --- 1995 tcp 1040 [0 0 0 0] ------- [0:0 1:0 32 0] [12 0] 0 0
r 40.386720528 _0_ RTR  --- 1995 tcp 1040 [0 0 0 0] ------- [0:0 1:0 32 0] [12 0] 0 0
SFs 40.386720528 _0_ 1995 [0 -> 1] 1(0) to 2 
s 40.386720528 _0_ RTR  --- 1995 tcp 1060 [0 0 0 0] ------- [0:0 1:0 32 2] [12 0] 0 0
r 40.396947334 _1_ RTR  --- 1992 tcp 1060 [13a 1 2 800] ------- [0:0 1:0 31 1] [9 0] 2 0
r 40.396947334 _1_ AGT  --- 1992 tcp 1040 [13a 1 2 800] ------- [0:0 1:0 31 1] [9 0] 2 0
s 40.396947334 _1_ AGT  --- 1996 ack 40 [0 0 0 0] ------- [1:0 0:0 32 0] [9 0] 0 0
r 40.396947334 _1_ RTR  --- 1996 ack 40 [0 0 0 0] ------- [1:0 0:0 32 0] [9 0] 0 0
SFs 40.396947334 _1_ 1996 [1 -> 0] 1(0) to 2 
s 40.396947334 _1_ RTR  --- 1996 ack 60 [0 0 0 0] ------- [1:0 0:0 32 2] [9 0] 0 0
r 40.407414237 _1_ RTR  --- 1993 tcp 1060 [13a 1 2 800] ------- [0:0 1:0 31 1] [10 0] 2 0
r 40.407414237 _1_ AGT  --- 1993 tcp 1040 [13a 1 2 800] ------- [0:0 1:0 31 1] [10 0] 2 0
s 40.407414237 _1_ AGT  --- 1997 ack 40 [0 0 0 0] ------- [1:0 0:0 32 0] [10 0] 0 0
r 40.407414237 _1_ RTR  --- 1997 ack 40 [0 0 0 0] ------- [1:0 0:0 32 0] [10 0] 0 0
SFs 40.407414237 _1_ 1997 [1 -> 0] 1(0) to 2 
s 40.407414237 _1_ RTR  --- 1997 ack 60 [0 0 0 0] ------- [1:0 0:0 32 2] [10 0] 0 0
r 40.409480413 _2_ RTR  --- 1996 ack 60 [13a 2 1 800] ------- [1:0 0:0 32 2] [9 0] 1 0
SFf 40.409480413 _2_ 1996 [1 -> 0] 1 to 0
f 40.409480413 _2_ RTR  --- 1996 ack 60 [13a 2 1 800] ------- [1:0 0:0 31 0] [9 0] 1 0
r 40.419606590 _1_ RTR  --- 1994 tcp 1060 [13a 1 2 800] ------- [0:0 1:0 31 1] [11 0] 2 0
r 40.419606590 _1_ AGT  --- 1994 tcp 1040 [13a 1 2 800] ------- [0:0 1:0 31 1] [11 0] 2 0
s 40.419606590 _1_ AGT  --- 1998 ack 40 [0 0 0 0] ------- [1:0 0:0 32 0] [11 0] 0 0
r 40.419606590 _1_ RTR  --- 1998 ack 40 [0 0 0 0] ------- [1:0 0:0 32 0] [11 0] 0 0
SFs 40.419606590 _1_ 1998 [1 -> 0] 1(0) to 2 
s 40.419606590 _1_ RTR  --- 1998 ack 60 [0 0 0 0] ------- [1:0 0:0 32 2] [11 0] 0 0
r 40.422052766 _2_ RTR  --- 1997 ack 60 [13a 2 1 800] ------- [1:0 0:0 32 2] [10 0] 1 0
SFf 40.422052766 _2_ 1997 [1 -> 0] 1 to 0
f 40.422052766 _2_ RTR  --- 1997 ack 60 [13a 2 1 800] ------- [1:0 0:0 31 0] [10 0] 1 0
r 40.424058651 _0_ RTR  --- 1996 ack 60 [13a 0 2 800] ------- [1:0 0:0 31 0] [9 0] 2 0
r 40.424058651 _0_ AGT  --- 1996 ack 40 [13a 0 2 800] ------- [1:0 0:0 31 0] [9 0] 2 0
s 40.424058651 _0_ AGT  --- 1999 tcp 1040 [0 0 0 0] ------- [0:0 1:0 32 0] [13 0] 0 0
r 40.424058651 _0_ RTR  --- 1999 tcp 1040 [0 0 0 0] ------- [0:0 1:0 32 0] [13 0] 0 0
SFs 40.424058651 _0_ 1999 [0 -> 1] 1(0) to 2 
s 40.424058651 _0_ RTR  --- 1999 tcp 1060 [0 0 0 0] ------- [0:0 1:0 32 2] [13 0] 0 0
r 40.434084536 _2_ RTR  --- 1995 tcp 1060 [13a 2 0 800] ------- [0:0 1:0 32 2] [12 0] 1 0
SFf 40.434084536 _2_ 1995 [0 -> 1] 1 to 1
f 40.434084536 _2_ RTR  --- 1995 tcp 1060 [13a 2 0 800] ------- [0:0 1:0 31 1] [12 0] 1 0
r 40.444151049 _2_ RTR  --- 1999 tcp 1060 [13a 2 0 800] ------- [0:0 1:0 32 2] [13 0] 1 0
SFf 40.444151049 _2_ 1999 [0 -> 1] 1 to 1
f 40.444151049 _2_ RTR  --- 1999 tcp 1060 [13a 2 0 800] ------- [0:0 1:0 31 1] [13 0] 1 0
r 40.446276933 _0_ RTR  --- 1997 ack 60 [13a 0 2 800] ------- [1:0 0:0 31 0] [10 0] 2 0
r 40.446276933 _0_ AGT  --- 1997 ack 40 [13a 0 2 800] ------- [1:0 0:0 31 0] [10 0] 2 0
s 40.446276933 _0_ AGT  --- 2000 tcp 1040 [0 0 0 0] ------- [0:0 1:0 32 0] [14 0] 0 0
r 40.446276933 _0_ RTR  --- 2000 tcp 1040 [0 0 0 0] ------- [0:0 1:0 32 0] [14 0] 0 0
SFs 40.446276933 _0_ 2000 [0 -> 1] 1(0) to 2 
s 40.446276933 _0_ RTR  --- 2000 tcp 1060 [0 0 0 0] ------- [0:0 1:0 32 2] [14 0] 0 0
r 40.456343736 _1_ RTR  --- 1995 tcp 1060 [13a 1 2 800] ------- [0:0 1:0 31 1] [12 0] 2 0
r 40.456343736 _1_ AGT  --- 1995 tcp 1040 [13a 1 2 800] ------- [0:0 1:0 31 1] [12 0] 2 0
s 40.456343736 _1_ AGT  --- 2001 ack 40 [0 0 0 0] ------- [1:0 0:0 32 0] [12 0] 0 0
r 40.456343736 _1_ RTR  --- 2001 ack 40 [0 0 0 0] ------- [1:0 0:0 32 0] [12 0] 0 0
SFs 40.456343736 _1_ 2001 [1 -> 0] 1(0) to 2 
s 40.456343736 _1_ RTR  --- 2001 ack 60 [0 0 0 0] ------- [1:0 0:0 32 2] [12 0] 0 0
r 40.458629910 _2_ RTR  --- 1998 ack 60 [13a 2 1 800] ------- [1:0 0:0 32 2] [11 0] 1 0
SFf 40.458629910 _2_ 1998 [1 -> 0] 1 to 0
f 40.458629910 _2_ RTR  --- 1998 ack 60 [13a 2 1 800] ------- [1:0 0:0 31 0] [11 0] 1 0
r 40.468796084 _1_ RTR  --- 1999 tcp 1060 [13a 1 2 800] ------- [0:0 1:0 31 1] [13 0] 2 0
r 40.468796084 _1_ AGT  --- 1999 tcp 1040 [13a 1 2 800] ------- [0:0 1:0 31 1] [13 0] 2 0
s 40.468796084 _1_ AGT  --- 2002 ack 40 [0 0 0 0] ------- [1:0 0:0 32 0] [13 0] 0 0
r 40.468796084 _1_ RTR  --- 2002 ack 40 [0 0 0 0] ------- [1:0 0:0 32 0] [13 0] 0 0
SFs 40.468796084 _1_ 2002 [1 -> 0] 1(0) to 2 
s 40.468796084 _1_ RTR  --- 2002 ack 60 [0 0 0 0] ------- [1:0 0:0 32 2] [13 0] 0 0
r 40.470962258 _2_ RTR  --- 2001 ack 60 [13a 2 1 800] ------- [1:0 0:0 32 2] [12 0] 1 0
SFf 40.470962258 _2_ 2001 [1 -> 0] 1 to 0
f 40.470962258 _2_ RTR  --- 2001 ack 60 [13a 2 1 800] ------- [1:0 0:0 31 0] [12 0] 1 0
r 40.481218629 _2_ RTR  --- 2000 tcp 1060 [13a 2 0 800] ------- [0:0 1:0 32 2] [14 0] 1 0
SFf 40.481218629 _2_ 2000 [0 -> 1] 1 to 1
f 40.481218629 _2_ RTR  --- 2000 tcp 1060 [13a 2 0 800] ------- [0:0 1:0 31 1] [14 0] 1 0
r 40.483324512 _0_ RTR  --- 1998 ack 60 [13a 0 2 800] ------- [1:0 0:0 31 0] [11 0] 2 0
r 40.483324512 _0_ AGT  --- 1998 ack 40 [13a 0 2 800] ------- [1:0 0:0 31 0] [11 0] 2 0
s 40.483324512 _0_ AGT  --- 2003 tcp 1040 [0 0 0 0] ------- [0:0 1:0 32 0] [15 0] 0 0
r 40.483324512 _0_ RTR  --- 2003 tcp 1040 [0 0 0 0] ------- [0:0 1:0 32 0] [15 0] 0 0
SFs 40.483324512 _0_ 2003 [0 -> 1] 1(0) to 2 
s 40.483324512 _0_ RTR  --- 2003 tcp 1060 [0 0 0 0] ------- [0:0 1:0 32 2] [15 0] 0 0
r 40.493650396 _2_ RTR  --- 2003 tcp 1060 [13a 2 0 800] ------- [0:0 1:0 32 2] [15 0] 1 0
SFf 40.493650396 _2_ 2003 [0 -> 1] 1 to 1
f 40.493650396 _2_ RTR  --- 2003 tcp 1060 [13a 2 0 800] ------- [0:0 1:0 31 1] [15 0] 1 0
r 40.495707152 _2_ RTR  --- 2002 ack 60 [13a 2 1 800] ------- [1:0 0:0 32 2] [13 0] 1 0
SFf 40.495707152 _2_ 2002 [1 -> 0] 1 to 0
f 40.495707152 _2_ RTR  --- 2002 ack 60 [13a 2 1 800] ------- [1:0 0:0 31 0] [13 0] 1 0
r 40.497733035 _0_ RTR  --- 2001 ack 60 [13a 0 2 800] ------- [1:0 0:0 31 0] [12 0] 2 0
r 40.497733035 _0_ AGT  --- 2001 ack 40 [13a 0 2 800] ------- [1:0 0:0 31 0] [12 0] 2 0
s 40.497733035 _0_ AGT  --- 2004 tcp 1040 [0 0 0 0] ------- [0:0 1:0 32 0] [16 0] 0 0
r 40.497733035 _0_ RTR  --- 2004 tcp 1040 [0 0 0 0] ------- [0:0 1:0 32 0] [16 0] 0 0
SFs 40.497733035 _0_ 2004 [0 -> 1] 1(0) to 2 
s 40.497733035 _0_ AGT  --- 2005 tcp 1040 [0 0 0 0] ------- [0:0 1:0 32 0] [17 0] 0 0
r 40.497733035 _0_ RTR  --- 2005 tcp 1040 [0 0 0 0] ------- [0:0 1:0 32 0] [17 0] 0 0
SFs 40.497733035 _0_ 2005 [0 -> 1] 1(0) to 2 
s 40.497733035 _0_ RTR  --- 2004 tcp 1060 [0 0 0 0] ------- [0:0 1:0 32 2] [16 0] 0 0
s 40.497733035 _0_ RTR  --- 2005 tcp 1060 [0 0 0 0] ------- [0:0 1:0 32 2] [17 0] 0 0
r 40.507839835 _1_ RTR  --- 2000 tcp 1060 [13a 1 2 800] ------- [0:0 1:0 31 1] [14 0] 2 0
r 40.507839835 _1_ AGT  --- 2000 tcp 1040 [13a 1 2 800] ------- [0:0 1:0 31 1] [14 0] 2 0
s 40.507839835 _1_ AGT  --- 2006 ack 40 [0 0 0 0] ------- [1:0 0:0 32 0] [14 0] 0 0
r 40.507839835 _1_ RTR  --- 2006 ack 40 [0 0 0 0] ------- [1:0 0:0 32 0] [14 0] 0 0
SFs 40.507839835 _1_ 2006 [1 -> 0] 1(0) to 2 
s 40.507839835 _1_ RTR  --- 2006 ack 60 [0 0 0 0] ------- [1:0 0:0 32 2] [14 0] 0 0
r 40.510306006 _2_ RTR  --- 2006 ack 60 [13a 2 1 800] ------- [1:0 0:0 32 2] [14 0] 1 0
SFf 40.510306006 _2_ 2006 [1 -> 0] 1 to 0
f 40.510306006 _2_ RTR  --- 2006 ack 60 [13a 2 1 800] ------- [1:0 0:0 31 0] [14 0] 1 0
r 40.520312178 _1_ RTR  --- 2003 tcp 1060 [13a 1 2 800] ------- [0:0 1:0 31 1] [15 0] 2 0
r 40.520312178 _1_ AGT  --- 2003 tcp 1040 [13a 1 2 800] ------- [0:0 1:0 31 1] [15 0] 2 0
s 40.520312178 _1_ AGT  --- 2007 ack 40 [0 0 0 0] ------- [1:0 0:0 32 0] [15 0] 0 0
r 40.520312178 _1_ RTR  --- 2007 ack 40 [0 0 0 0] ------- [1:0 0:0 32 0] [15 0] 0 0
SFs 40.520312178 _1_ 2007 [1 -> 0] 1(0) to 2 
s 40.520312178 _1_ RTR  --- 2007 ack 60 [0 0 0 0] ------- [1:0 0:0 32 2] [15 0] 0 0
r 40.522298784 _0_ RTR  --- 2002 ack 60 [13a 0 2 800] ------- [1:0 0:0 31 0] [13 0] 2 0
r 40.522298784 _0_ AGT  --- 2002 ack 40 [13a 0 2 800] ------- [1:0 0:0 31 0] [13 0] 2 0
s 40.522298784 _0_ AGT  --- 2008 tcp 1040 [0 0 0 0] ------- [0:0 1:0 32 0] [18 0] 0 0
r 40.522298784 _0_ RTR  --- 2008 tcp 1040 [0 0 0 0] ------- [0:0 1:0 32 0] [18 0] 0 0
SFs 40.522298784 _0_ 2008 [0 -> 1] 1(0) to 2 
s 40.522298784 _0_ RTR  --- 2008 tcp 1060 [0 0 0 0] ------- [0:0 1:0 32 2] [18 0] 0 0
r 40.532424666 _2_ RTR  --- 2004 tcp 1060 [13a 2 0 800] ------- [0:0 1:0 32 2] [16 0] 1 0
SFf 40.532424666 _2_ 2004 [0 -> 1] 1 to 1
f 40.532424666 _2_ RTR  --- 2004 tcp 1060 [13a 2 0 800] ------- [0:0 1:0 31 1] [16 0] 1 0
r 40.534601420 _2_ RTR  --- 2007 ack 60 [13a 2 1 800] ------- [1:0 0:0 32 2] [15 0] 1 0
SFf 40.534601420 _2_ 2007 [1 -> 0] 1 to 0
f 40.534601420 _2_ RTR  --- 2007 ack 60 [13a 2 1 800] ------- [1:0 0:0 31 0] [15 0] 1 0
r 40.544657789 _2_ RTR  --- 2005 tcp 1060 [13a 2 0 800] ------- [0:0 1:0 32 2] [17 0] 1 0
SFf 40.544657789 _2_ 2005 [0 -> 1] 1 to 1
f 40.544657789 _2_ RTR  --- 2005 tcp 1060 [13a 2 0 800] ------- [0:0 1:0 31 1] [17 0] 1 0
r 40.546863671 _0_ RTR  --- 2006 ack 60 [13a 0 2 800] ------- [1:0 0:0 31 0] [14 0] 2 0
r 40.546863671 _0_ AGT  --- 2006 ack 40 [13a 0 2 800] ------- [1:0 0:0 31 0] [14 0] 2 0
s 40.546863671 _0_ AGT  --- 2009 tcp 1040 [0 0 0 0] ------- [0:0 1:0 32 0] [19 0] 0 0
r 40.546863671 _0_ RTR  --- 2009 tcp 1040 [0 0 0 0] ------- [0:0 1:0 32 0] [19 0] 0 0
SFs 40.546863671 _0_ 2009 [0 -> 1] 1(0) to 2 
s 40.546863671 _0_ RTR  --- 2009 tcp 1060 [0 0 0 0] ------- [0:0 1:0 32 2] [19 0] 0 0
r 40.556929552 _2_ RTR  --- 2008 tcp 1060 [13a 2 0 800] ------- [0:0 1:0 32 2] [18 0] 1 0
SFf 40.556929552 _2_ 2008 [0 -> 1] 1 to 1
f 40.556929552 _2_ RTR  --- 2008 tcp 1060 [13a 2 0 800] ------- [0:0 1:0 31 1] [18 0] 1 0